
#(C) 2015 by Fachinformationszentrum Karlsruhe.  All rights reserved.
data_73628-ICSD
_database_code_ICSD 73628
_audit_creation_date 1994-06-30
_audit_update_record 2005-10-01
_chemical_name_systematic 'Barium titanate'
_chemical_formula_structural 'Ba (Ti O3)'
_chemical_formula_sum 'Ba1 O3 Ti1'
_chemical_name_structure_type FeBiO3
_exptl_crystal_density_diffrn 6.04
_cell_measurement_temperature 15.
_publ_section_title 'Structures of the ferroelectric phases of barium titanate'
loop_
_citation_id
_citation_journal_full
_citation_year
_citation_journal_volume
_citation_page_first
_citation_page_last
_citation_journal_id_ASTM
primary 'Journal of Physical Chemistry' 1993 97 2368 2377 JPCHAX
loop_
_publ_author_name
'Kwei, G.H.'
'Lawson, A.C.jr.'
'Billinge, S.J.L.'
'Cheong, S.-W.'
_cell_length_a 4.00360(25)
_cell_length_b 4.00360(25)
_cell_length_c 4.00360(25)
_cell_angle_alpha 89.839(1)
_cell_angle_beta 89.839(1)
_cell_angle_gamma 89.839(1)
_cell_volume 64.17
_cell_formula_units_Z 1
_symmetry_space_group_name_H-M 'R 3 m R'
_symmetry_Int_Tables_number 160
_refine_ls_R_factor_all 0.039
loop_
_symmetry_equiv_pos_site_id
_symmetry_equiv_pos_as_xyz
1 'z, y, x'
2 'z, x, y'
3 'x, z, y'
4 'y, z, x'
5 'y, x, z'
6 'x, y, z'
loop_
_atom_type_symbol
_atom_type_oxidation_number
Ba2+ 2
Ti4+ 4
O2- -2
loop_
_atom_site_label
_atom_site_type_symbol
_atom_site_symmetry_multiplicity
_atom_site_Wyckoff_symbol
_atom_site_fract_x
_atom_site_fract_y
_atom_site_fract_z
_atom_site_B_iso_or_equiv
_atom_site_occupancy
_atom_site_attached_hydrogens
Ba1 Ba2+ 1 a 0 0 0 . 1. 0
Ti1 Ti4+ 1 a 0.4872(4) 0.4872(4) 0.4872(4) . 1. 0
O1 O2- 3 b 0.5109(4) 0.5109(4) 0.01930(23) . 1. 0
loop_
_atom_site_aniso_label
_atom_site_aniso_type_symbol
_atom_site_aniso_U_11
_atom_site_aniso_U_22
_atom_site_aniso_U_33
_atom_site_aniso_U_12
_atom_site_aniso_U_13
_atom_site_aniso_U_23
Ba1 Ba2+ -.0015(1) -.0015(1) -.0015(1) -.0041(1) -.0041(1) -.0041(1)
Ti1 Ti4+ 0.0028(3) 0.0028(3) 0.0028(3) 0.0006(3) 0.0006(3) 0.0006(3)
O1 O2- 0.0023(2) 0.0023(2) 0.0014(3) 0.0004(4) 0.0007(2) 0.0007(2)
#End of TTdata_73628-ICSD